# vtk DataFile Version 3.0
a funny dataset
ASCII
DATASET RECTILINEAR_GRID
DIMENSIONS 16 8 16
X_COORDINATES 16 float 
-7.5 -6.5 -5.5 -4.5 -3.5 -2.5 -1.5 -0.5 0.5 1.5 2.5 3.5 4.5 5.5 6.5 7.5
Y_COORDINATES 8 float 
0 -1 -2 -3 -4 -5 -6 -7
Z_COORDINATES 16 float 
-7.5 -6.5 -5.5 -4.5 -3.5 -2.5 -1.5 -0.5 0.5 1.5 2.5 3.5 4.5 5.5 6.5 7.5
POINT_DATA 2048
TENSORS justForFun float
34180.5 67.9371 15508.8
67.9371 -8874.54 20.6784
15508.8 20.6784 -13473.2
41069.9 96.7122 25486.5
96.7122 -12049.1 39.21
25486.5 39.21 -12955.2
47968.2 138.915 40460.3
138.915 -16592.2 73.5641
40460.3 73.5641 -9252.78
52608.5 199.156 62124
199.156 -23120.2 138.053
62124 138.053 1339.05
49653.1 277.333 90499.6
277.333 -32367.4 258.57
90499.6 258.57 25871.7
29494.8 351.326 117858
351.326 -44721.6 471.433
117858 471.433 74857.1
-14988.9 345.31 117610
345.31 -58755 784.067
117610 784.067 152086
-62624.9 155.309 53242.5
155.309 -69184.1 1064.85
53242.5 1064.85 224058
-62624.9 -155.309 -53242.5
-155.309 -69184.1 1064.85
-53242.5 1064.85 224058
-14988.9 -345.31 -117610
-345.31 -58755 784.067
-117610 784.067 152086
29494.8 -351.326 -117858
-351.326 -44721.6 471.433
-117858 471.433 74857.1
49653.1 -277.333 -90499.6
-277.333 -32367.4 258.57
-90499.6 258.57 25871.7
52608.5 -199.156 -62124
-199.156 -23120.2 138.053
-62124 138.053 1339.05
47968.2 -138.915 -40460.3
-138.915 -16592.2 73.5641
-40460.3 73.5641 -9252.78
41069.9 -96.7122 -25486.5
-96.7122 -12049.1 39.21
-25486.5 39.21 -12955.2
34180.5 -67.9371 -15508.8
-67.9371 -8874.54 20.6784
-15508.8 20.6784 -13473.2
32983.2 6642.58 14838.4
6642.58 -7941.47 1998.23
14838.4 1998.23 -13445.2
39283.7 9386.12 24260.3
9386.12 -10526.7 3769.68
24260.3 3769.68 -13078.1
45306.7 13345.5 38188.4
13345.5 -14031.6 7012.78
38188.4 7012.78 -9805.17
48754.1 18864.5 57892
18864.5 -18690.3 12993.5
57892 12993.5 -373.063
44582.9 25762.9 82802.3
25762.9 -24574.4 23894.4
82802.3 23894.4 21133.6
24470.4 31816.2 105223
31816.2 -31214.5 42510
105223 42510 62845.4
-16335.8 30396.7 102135
30396.7 -37187.4 68771.2
102135 68771.2 126166
-57877 13390.4 45303.5
13390.4 -40622.4 91513
45303.5 91513 183137
-57877 -13390.4 -45303.5
-13390.4 -40622.4 91513
-45303.5 91513 183137
-16335.8 -30396.7 -102135
-30396.7 -37187.4 68771.2
-102135 68771.2 126166
24470.4 -31816.2 -105223
-31816.2 -31214.5 42510
-105223 42510 62845.4
44582.9 -25762.9 -82802.3
-25762.9 -24574.4 23894.4
-82802.3 23894.4 21133.6
48754.1 -18864.5 -57892
-18864.5 -18690.3 12993.5
-57892 12993.5 -373.063
45306.7 -13345.5 -38188.4
-13345.5 -14031.6 7012.78
-38188.4 7012.78 -9805.17
39283.7 -9386.12 -24260.3
-9386.12 -10526.7 3769.68
-24260.3 3769.68 -13078.1
32983.2 -6642.58 -14838.4
-6642.58 -7941.47 1998.23
-14838.4 1998.23 -13445.2
29751.1 12038 13035.8
12038 -5478.4 3493.6
13035.8 3493.6 -13333.3
34568.3 16662.7 21026
16662.7 -6609.91 6501.89
21026 6501.89 -13339.9
38493.9 23042.4 32354.8
23042.4 -7668.79 11824.2
32354.8 11824.2 -11112.4
39306.4 31367 47424.9
31367 -8194.55 21183.1
47424.9 21183.1 -4400.47
32904.8 40733.7 64714.8
40733.7 -7263.57 37164.8
64714.8 37164.8 10399.4
13965.8 47224.1 77410.4
47224.1 -3583.36 62238
77410.4 62238 37172.8
-18012 42184.4 70393.7
42184.4 3152 94327.5
70393.7 94327.5 74344.5
-47014.5 17725.8 29815.2
17725.8 9472.4 119857
29815.2 119857 105196
-47014.5 -17725.8 -29815.2
-17725.8 9472.4 119857
-29815.2 119857 105196
-18012 -42184.4 -70393.7
-42184.4 3152 94327.5
-70393.7 94327.5 74344.5
13965.8 -47224.1 -77410.4
-47224.1 -3583.36 62238
-77410.4 62238 37172.8
32904.8 -40733.7 -64714.8
-40733.7 -7263.57 37164.8
-64714.8 37164.8 10399.4
39306.4 -31367 -47424.9
-31367 -8194.55 21183.1
-47424.9 21183.1 -4400.47
38493.9 -23042.4 -32354.8
-23042.4 -7668.79 11824.2
-32354.8 11824.2 -11112.4
34568.3 -16662.7 -21026
-16662.7 -6609.91 6501.89
-21026 6501.89 -13339.9
29751.1 -12038 -13035.8
-12038 -5478.4 3493.6
-13035.8 3493.6 -13333.3
25251.4 15545.1 10547.5
15545.1 -2206.76 4233.07
10547.5 4233.07 -13073.3
28265.9 20872.8 16713.1
20872.8 -1654.25 7739.44
16713.1 7739.44 -13515.9
29878.5 27741.2 24936.5
27741.2 -125.743 13647.1
24936.5 13647.1 -12480
28237.1 35861.5 34945.3
35861.5 3202.93 23374.5
34945.3 23374.5 -8684.8
20621.9 43618.4 44904.3
43618.4 9461.8 38617.7
44904.3 38617.7 -436.113
4684.29 46823.2 49947.5
46823.2 19459.5 60136.8
49947.5 60136.8 13426.3
-17558.2 38759.9 42218.3
38759.9 31842.8 84718.1
42218.3 84718.1 30888.6
-35371.9 15487.4 17031.1
15487.4 41237.2 102527
17031.1 102527 44195.7
-35371.9 -15487.4 -17031.1
-15487.4 41237.2 102527
-17031.1 102527 44195.7
-17558.2 -38759.9 -42218.3
-38759.9 31842.8 84718.1
-42218.3 84718.1 30888.6
4684.29 -46823.2 -49947.5
-46823.2 19459.5 60136.8
-49947.5 60136.8 13426.3
20621.9 -43618.4 -44904.3
-43618.4 9461.8 38617.7
-44904.3 38617.7 -436.113
28237.1 -35861.5 -34945.3
-35861.5 3202.93 23374.5
-34945.3 23374.5 -8684.8
29878.5 -27741.2 -24936.5
-27741.2 -125.743 13647.1
-24936.5 13647.1 -12480
28265.9 -20872.8 -16713.1
-20872.8 -1654.25 7739.44
-16713.1 7739.44 -13515.9
25251.4 -15545.1 -10547.5
-15545.1 -2206.76 4233.07
-10547.5 4233.07 -13073.3
20353.2 17068.6 7877.43
17068.6 1089.01 4211.8
7877.43 4211.8 -12612.2
21763.2 22108.7 12285.8
22108.7 3006.18 7579.38
12285.8 7579.38 -13410.6
21597.9 28086.7 17758
28086.7 6349.78 12947.2
17758 12947.2 -13342.5
18565.2 34334.1 23764.1
34334.1 11860.9 21176.4
23764.1 21176.4 -11769.8
11231.4 39071.7 28785
39071.7 20241.3 32979.4
28785 32979.4 -8025.71
-891.549 39000.7 29941.7
39000.7 31423.3 48026.5
29941.7 48026.5 -1948.55
-15339.8 30199.8 23767.2
30199.8 43334.8 63537.7
23767.2 63537.7 5185.69
-25765.7 11575.8 9216.23
11575.8 51462.5 73914.1
9216.23 73914.1 10283.7
-25765.7 -11575.8 -9216.23
-11575.8 51462.5 73914.1
-9216.23 73914.1 10283.7
-15339.8 -30199.8 -23767.2
-30199.8 43334.8 63537.7
-23767.2 63537.7 5185.69
-891.549 -39000.7 -29941.7
-39000.7 31423.3 48026.5
-29941.7 48026.5 -1948.55
11231.4 -39071.7 -28785
-39071.7 20241.3 32979.4
-28785 32979.4 -8025.71
18565.2 -34334.1 -23764.1
-34334.1 11860.9 21176.4
-23764.1 21176.4 -11769.8
21597.9 -28086.7 -17758
-28086.7 6349.78 12947.2
-17758 12947.2 -13342.5
21763.2 -22108.7 -12285.8
-22108.7 3006.18 7579.38
-12285.8 7579.38 -13410.6
20353.2 -17068.6 -7877.43
-17068.6 1089.01 4211.8
-7877.43 4211.8 -12612.2
15735 16970 5415.33
16970 3847.32 3617.44
5415.33 3617.44 -11940.2
15991.9 21165.9 8394.8
21165.9 6572.96 6470.46
8394.8 6470.46 -12948.4
14799.4 25694.4 11827.8
25694.4 10741.5 10774
11827.8 10774 -13493
11398 29776.5 15212.7
29776.5 16810.9 16936.8
15212.7 16936.8 -13273.3
5220.23 31918.9 17531.6
31918.9 24985.6 25095.3
17531.6 25095.3 -12043
-3426.32 29973.9 17280.6
29973.9 34692.2 34630.3
17280.6 34630.3 -9845.88
-12559.4 22023.1 13078.4
22023.1 44024.7 43681.7
13078.4 43681.7 -7290.55
-18647.7 8183.05 4928.05
8183.05 49947.2 49379.1
4928.05 49379.1 -5515.78
-18647.7 -8183.05 -4928.05
-8183.05 49947.2 49379.1
-4928.05 49379.1 -5515.78
-12559.4 -22023.1 -13078.4
-22023.1 44024.7 43681.7
-13078.4 43681.7 -7290.55
-3426.32 -29973.9 -17280.6
-29973.9 34692.2 34630.3
-17280.6 34630.3 -9845.88
5220.23 -31918.9 -17531.6
-31918.9 24985.6 25095.3
-17531.6 25095.3 -12043
11398 -29776.5 -15212.7
-29776.5 16810.9 16936.8
-15212.7 16936.8 -13273.3
14799.4 -25694.4 -11827.8
-25694.4 10741.5 10774
-11827.8 10774 -13493
15991.9 -21165.9 -8394.8
-21165.9 6572.96 6470.46
-8394.8 6470.46 -12948.4
15735 -16970 -5415.33
-16970 3847.32 3617.44
-5415.33 3617.44 -11940.2
11776.3 15792.1 3373.12
15792.1 5816.95 2703
3373.12 2703 -11091.6
11344.8 18983.2 5314.75
18983.2 8827.77 4914.1
5314.75 4914.1 -12167.5
9739.92 22085 7399.6
22085 13054 8085.75
7399.6 8085.75 -13009.5
6586.98 24404.2 9256.89
24404.2 18687.8 12363.1
9256.89 12363.1 -13470.2
1774.64 24874 10282.6
24874 25626 17656.7
10282.6 17656.7 -13446.3
-4193.69 22250 9745.54
22250 33183.7 23428.3
9745.54 23428.3 -12970.6
-9954.1 15712.4 7131.66
15712.4 39928.5 28574.2
7131.66 28574.2 -12283.9
-13576.2 5707.58 2634.95
5707.58 43993.9 31672.1
2634.95 31672.1 -11781.2
-13576.2 -5707.58 -2634.95
-5707.58 43993.9 31672.1
-2634.95 31672.1 -11781.2
-9954.1 -15712.4 -7131.66
-15712.4 39928.5 28574.2
-7131.66 28574.2 -12283.9
-4193.69 -22250 -9745.54
-22250 33183.7 23428.3
-9745.54 23428.3 -12970.6
1774.64 -24874 -10282.6
-24874 25626 17656.7
-10282.6 17656.7 -13446.3
6586.98 -24404.2 -9256.89
-24404.2 18687.8 12363.1
-9256.89 12363.1 -13470.2
9739.92 -22085 -7399.6
-22085 13054 8085.75
-7399.6 8085.75 -13009.5
11344.8 -18983.2 -5314.75
-18983.2 8827.77 4914.1
-5314.75 4914.1 -12167.5
11776.3 -15792.1 -3373.12
-15792.1 5816.95 2703
-3373.12 2703 -11091.6
8598.5 14044.9 1809.49
14044.9 6993.56 1691.27
1809.49 1691.27 -10126.7
7837.08 16312.3 3053.05
16312.3 9921.4 3292.6
3053.05 3292.6 -11166.5
6202.53 18267.4 4310.11
18267.4 13765.4 5493.44
4310.11 5493.44 -12090.1
3550.26 19377.8 5339.1
19377.8 18546.4 8317.14
5339.1 8317.14 -12815.3
-40.3234 18951.8 5805.58
18951.8 24038.3 11627.7
5805.58 11627.7 -13283.3
-4110.38 16320.5 5366.87
16320.5 29640.8 15048.7
5366.87 15048.7 -13492.2
-7782.36 11187.2 3843.06
11187.2 34372.6 17959.9
3843.06 17959.9 -13516.7
-9993.84 3997.26 1402.07
3997.26 37120.4 19657
1402.07 19657 -13480.2
-9993.84 -3997.26 -1402.07
-3997.26 37120.4 19657
-1402.07 19657 -13480.2
-7782.36 -11187.2 -3843.06
-11187.2 34372.6 17959.9
-3843.06 17959.9 -13516.7
-4110.38 -16320.5 -5366.87
-16320.5 29640.8 15048.7
-5366.87 15048.7 -13492.2
-40.3234 -18951.8 -5805.58
-18951.8 24038.3 11627.7
-5805.58 11627.7 -13283.3
3550.26 -19377.8 -5339.1
-19377.8 18546.4 8317.14
-5339.1 8317.14 -12815.3
6202.53 -18267.4 -4310.11
-18267.4 13765.4 5493.44
-4310.11 5493.44 -12090.1
7837.08 -16312.3 -3053.05
-16312.3 9921.4 3292.6
-3053.05 3292.6 -11166.5
8598.5 -14044.9 -1809.49
-14044.9 6993.56 1691.27
-1809.49 1691.27 -10126.7
41647.6 80.775 9594.89
80.775 -9543.45 12.7932
9594.89 12.7932 -19379.4
53380 121.634 19458.8
121.634 -13427.2 29.9366
19458.8 29.9366 -22049.5
68250.5 188.523 36215.5
188.523 -19365.4 65.8464
36215.5 65.8464 -23064.1
85685 300.861 64863.4
300.861 -28716.9 144.141
64863.4 144.141 -18678.1
100909 489.369 113205
489.369 -43821 323.443
113205 323.443 1341.82
95416 774.499 186408
774.499 -68194.3 745.634
186408 745.634 63707.6
24272.2 1010.87 248073
1010.87 -103849 1653.82
248073 1653.82 218051
-113868 577.512 142774
577.512 -138258 2855.48
142774 2855.48 436484
-113868 -577.512 -142774
-577.512 -138258 2855.48
-142774 2855.48 436484
24272.2 -1010.87 -248073
-1010.87 -103849 1653.82
-248073 1653.82 218051
95416 -774.499 -186408
-774.499 -68194.3 745.634
-186408 745.634 63707.6
100909 -489.369 -113205
-489.369 -43821 323.443
-113205 323.443 1341.82
85685 -300.861 -64863.4
-300.861 -28716.9 144.141
-64863.4 144.141 -18678.1
68250.5 -188.523 -36215.5
-188.523 -19365.4 65.8464
-36215.5 65.8464 -23064.1
53380 -121.634 -19458.8
-121.634 -13427.2 29.9366
-19458.8 29.9366 -22049.5
41647.6 -80.775 -9594.89
-80.775 -9543.45 12.7932
-9594.89 12.7932 -19379.4
40061.6 7871.98 9014.92
7871.98 -8437.34 1214.01
9014.92 1214.01 -19180.1
50813.2 11746.1 18269.9
11746.1 -11521.2 2838.86
18269.9 2838.86 -21874.1
63964.7 17965.5 33710.6
17965.5 -15915.7 6190.5
33710.6 6190.5 -23111
78358.6 28101.3 59365.8
28101.3 -22109.1 13324.3
59365.8 13324.3 -19664.7
88523.1 44297.4 100660
44297.4 -30387.8 29047.6
100660 29047.6 -3216.19
77108.8 66750.1 158131
66750.1 -39717.5 63885.1
158131 63885.1 45948.4
10111.8 81283.3 196636
81283.3 -45647.2 132402
196636 132402 158062
-100211 43531.3 106176
43531.3 -44117.2 214475
106176 214475 302223
-100211 -43531.3 -106176
-43531.3 -44117.2 214475
-106176 214475 302223
10111.8 -81283.3 -196636
-81283.3 -45647.2 132402
-196636 132402 158062
77108.8 -66750.1 -158131
-66750.1 -39717.5 63885.1
-158131 63885.1 45948.4
88523.1 -44297.4 -100660
-44297.4 -30387.8 29047.6
-100660 29047.6 -3216.19
78358.6 -28101.3 -59365.8
-28101.3 -22109.1 13324.3
-59365.8 13324.3 -19664.7
63964.7 -17965.5 -33710.6
-17965.5 -15915.7 6190.5
-33710.6 6190.5 -23111
50813.2 -11746.1 -18269.9
-11746.1 -11521.2 2838.86
-18269.9 2838.86 -21874.1
40061.6 -7871.98 -9014.92
-7871.98 -8437.34 1214.01
-9014.92 1214.01 -19180.1
35816.4 14135.2 7478.49
14135.2 -5550.68 2004.23
7478.49 2004.23 -18596.7
44124.6 20566.5 15188.4
20566.5 -6701.02 4696.72
15188.4 4696.72 -21323.5
53223.8 30348.9 27433.7
30348.9 -7576.51 10025.8
27433.7 10025.8 -23049.3
61042 45043.2 46284.4
45043.2 -7169.52 20673.7
46284.4 20673.7 -21645.4
61789 65657.8 73100.7
65657.8 -2957.51 41980.7
73100.7 41980.7 -12405.7
42943.9 88255.5 103030
88255.5 10146.9 82835.9
103030 82835.9 13325.4
-9434.48 92803.5 111100
92803.5 37125.3 148875
111100 148875 62917.3
-73029.4 43925.8 53141.1
43925.8 66949.1 213627
53141.1 213627 115764
-73029.4 -43925.8 -53141.1
-43925.8 66949.1 213627
-53141.1 213627 115764
-9434.48 -92803.5 -111100
-92803.5 37125.3 148875
-111100 148875 62917.3
42943.9 -88255.5 -103030
-88255.5 10146.9 82835.9
-103030 82835.9 13325.4
61789 -65657.8 -73100.7
-65657.8 -2957.51 41980.7
-73100.7 41980.7 -12405.7
61042 -45043.2 -46284.4
-45043.2 -7169.52 20673.7
-46284.4 20673.7 -21645.4
53223.8 -30348.9 -27433.7
-30348.9 -7576.51 10025.8
-27433.7 10025.8 -23049.3
44124.6 -20566.5 -15188.4
-20566.5 -6701.02 4696.72
-15188.4 4696.72 -21323.5
35816.4 -14135.2 -7478.49
-14135.2 -5550.68 2004.23
-7478.49 2004.23 -18596.7
29997.1 18001.7 5418.4
18001.7 -1800.27 2174.58
5418.4 2174.58 -17656.6
35391.2 25247.7 11213.8
25247.7 -800.047 5192.86
11213.8 5192.86 -20351.9
40133.5 35432.4 19796
35432.4 1810.7 10833.8
19796 10833.8 -22511
41952.5 49049.8 31687.6
49049.8 7711.93 21195.5
31687.6 21195.5 -22982.4
36418 64941.2 46015.6
64941.2 19802.3 39573.4
46015.6 39573.4 -19699.6
17311.4 76938.6 57690
76938.6 41589.6 69458.8
57690 69458.8 -9986.12
-16961 70207.3 54334.9
70207.3 72520.7 109032
54334.9 109032 6473.66
-49183 29924.7 23484.1
29924.7 98840.5 141374
23484.1 141374 21520.3
-49183 -29924.7 -23484.1
-29924.7 98840.5 141374
-23484.1 141374 21520.3
-16961 -70207.3 -54334.9
-70207.3 72520.7 109032
-54334.9 109032 6473.66
17311.4 -76938.6 -57690
-76938.6 41589.6 69458.8
-57690 69458.8 -9986.12
36418 -64941.2 -46015.6
-64941.2 19802.3 39573.4
-46015.6 39573.4 -19699.6
41952.5 -49049.8 -31687.6
-49049.8 7711.93 21195.5
-31687.6 21195.5 -22982.4
40133.5 -35432.4 -19796
-35432.4 1810.7 10833.8
-19796 10833.8 -22511
35391.2 -25247.7 -11213.8
-25247.7 -800.047 5192.86
-11213.8 5192.86 -20351.9
29997.1 -18001.7 -5418.4
-18001.7 -1800.27 2174.58
-5418.4 2174.58 -17656.6
23791 19433.5 3301.48
19433.5 1857.81 1765.19
3301.48 1765.19 -16419.4
26646.1 26113.9 7320.1
26113.9 4490.99 4515.94
7320.1 4515.94 -18974.1
28108.5 34660.9 12820.5
34660.9 9291.21 9347.33
12820.5 9347.33 -21316
26405.4 44626.6 19616.8
44626.6 17691.4 17480.8
19616.8 17480.8 -22880.8
19027.6 53898.5 26462.6
53898.5 31456.4 30318.6
26462.6 30318.6 -22851.8
3981.47 57309.7 30157.3
57309.7 51466.7 48372.2
30157.3 48372.2 -20501.8
-16575.9 46971.8 25729.7
46971.8 74684.7 68784.1
25729.7 68784.1 -16211.5
-32782.3 18644.7 10401.3
18644.7 91606.4 83418.5
10401.3 83418.5 -12495.2
-32782.3 -18644.7 -10401.3
-18644.7 91606.4 83418.5
-10401.3 83418.5 -12495.2
-16575.9 -46971.8 -25729.7
-46971.8 74684.7 68784.1
-25729.7 68784.1 -16211.5
3981.47 -57309.7 -30157.3
-57309.7 51466.7 48372.2
-30157.3 48372.2 -20501.8
19027.6 -53898.5 -26462.6
-53898.5 31456.4 30318.6
-26462.6 30318.6 -22851.8
26405.4 -44626.6 -19616.8
-44626.6 17691.4 17480.8
-19616.8 17480.8 -22880.8
28108.5 -34660.9 -12820.5
-34660.9 9291.21 9347.33
-12820.5 9347.33 -21316
26646.1 -26113.9 -7320.1
-26113.9 4490.99 4515.94
-7320.1 4515.94 -18974.1
23791 -19433.5 -3301.48
-19433.5 1857.81 1765.19
-3301.48 1765.19 -16419.4
18074.8 18966.4 1460.45
18966.4 4788.72 975.58
1460.45 975.58 -14974.2
19134.2 24383.6 4094.12
24383.6 8283.33 3155.62
4094.12 3155.62 -17287.2
18687.9 30640.5 7432.44
30640.5 13848.9 6770.28
7432.44 6770.28 -19556
15641.2 36905.4 11134.4
36905.4 22350.1 12396.3
11134.4 12396.3 -21499
8906.72 41230.2 14280.1
41230.2 34438 20440.9
14280.1 20440.9 -22768.4
-1649.58 40325.6 15237.9
40325.6 49633.5 30536.7
15237.9 30536.7 -23113
-13725.3 30653.8 12192.6
30653.8 65033.8 40723.3
12192.6 40723.3 -22667.7
-22197.2 11617.6 4731.91
11617.6 75188.4 47413.7
4731.91 47413.7 -22088.6
-22197.2 -11617.6 -4731.91
-11617.6 75188.4 47413.7
-4731.91 47413.7 -22088.6
-13725.3 -30653.8 -12192.6
-30653.8 65033.8 40723.3
-12192.6 40723.3 -22667.7
-1649.58 -40325.6 -15237.9
-40325.6 49633.5 30536.7
-15237.9 30536.7 -23113
8906.72 -41230.2 -14280.1
-41230.2 34438 20440.9
-14280.1 20440.9 -22768.4
15641.2 -36905.4 -11134.4
-36905.4 22350.1 12396.3
-11134.4 12396.3 -21499
18687.9 -30640.5 -7432.44
-30640.5 13848.9 6770.28
-7432.44 6770.28 -19556
19134.2 -24383.6 -4094.12
-24383.6 8283.33 3155.62
-4094.12 3155.62 -17287.2
18074.8 -18966.4 -1460.45
-18966.4 4788.72 975.58
-1460.45 975.58 -14974.2
13292.8 17319 47.3761
17319 6757.15 37.964
47.3761 37.964 -13423.2
13279.6 21339.3 1719.02
21339.3 10450.2 1589.43
1719.02 1589.43 -15433.6
11980.2 25505.4 3702.24
25505.4 15807.5 4045.53
3702.24 4045.53 -17463.7
8832.63 29004.5 5714.95
29004.5 23214.5 7632.63
5714.95 7632.63 -19355.9
3513.62 30434.1 7210
30434.1 32696.5 12380.6
7210 12380.6 -20926.3
-3553.44 27966.9 7428.7
27966.9 43427.7 17858.6
7428.7 17858.6 -22029.2
-10721.1 20175.2 5731.83
20175.2 53329.7 22965.6
5731.83 22965.6 -22640.5
-15371.3 7416.72 2173.97
7416.72 59438.2 26131.1
2173.97 26131.1 -22876.7
-15371.3 -7416.72 -2173.97
-7416.72 59438.2 26131.1
-2173.97 26131.1 -22876.7
-10721.1 -20175.2 -5731.83
-20175.2 53329.7 22965.6
-5731.83 22965.6 -22640.5
-3553.44 -27966.9 -7428.7
-27966.9 43427.7 17858.6
-7428.7 17858.6 -22029.2
3513.62 -30434.1 -7210
-30434.1 32696.5 12380.6
-7210 12380.6 -20926.3
8832.63 -29004.5 -5714.95
-29004.5 23214.5 7632.63
-5714.95 7632.63 -19355.9
11980.2 -25505.4 -3702.24
-25505.4 15807.5 4045.53
-3702.24 4045.53 -17463.7
13279.6 -21339.3 -1719.02
-21339.3 10450.2 1589.43
-1719.02 1589.43 -15433.6
13292.8 -17319 -47.3761
-17319 6757.15 37.964
-47.3761 37.964 -13423.2
9544.74 15120.6 -926.2
15120.6 7816.87 -865.688
-926.2 -865.688 -11861.2
8994.23 17917.2 126.802
17917.2 11283.6 136.751
126.802 136.751 -13552.1
7471.64 20493.3 1317.17
20493.3 15956 1678.79
1317.17 1678.79 -15274.3
4740.35 22213 2458.87
22213 21930.6 3830.38
2458.87 3830.38 -16925.8
804.63 22182.8 3256.81
22182.8 28988.3 6522.92
3256.81 6522.92 -18387.3
-3862.71 19459.5 3370.18
19459.5 36380.1 9449.99
3370.18 9449.99 -19548.1
-8213.33 13527.9 2575.35
13527.9 42762 12035.5
2575.35 12035.5 -20336.2
-10887.3 4870.82 968.476
4870.82 46523.3 13578
968.476 13578 -20728.2
-10887.3 -4870.82 -968.476
-4870.82 46523.3 13578
-968.476 13578 -20728.2
-8213.33 -13527.9 -2575.35
-13527.9 42762 12035.5
-2575.35 12035.5 -20336.2
-3862.71 -19459.5 -3370.18
-19459.5 36380.1 9449.99
-3370.18 9449.99 -19548.1
804.63 -22182.8 -3256.81
-22182.8 28988.3 6522.92
-3256.81 6522.92 -18387.3
4740.35 -22213 -2458.87
-22213 21930.6 3830.38
-2458.87 3830.38 -16925.8
7471.64 -20493.3 -1317.17
-20493.3 15956 1678.79
-1317.17 1678.79 -15274.3
8994.23 -17917.2 -126.802
-17917.2 11283.6 136.751
-126.802 136.751 -13552.1
9544.74 -15120.6 926.2
-15120.6 7816.87 -865.688
926.2 -865.688 -11861.2
47364.2 90.2082 -159.048
90.2082 -9805.17 -0.212064
-159.048 -0.212064 -24485.3
64076.9 142.611 6886.94
142.611 -14251.8 10.5953
6886.94 10.5953 -30822.3
88430.1 236.445 20627.4
236.445 -21457.3 37.5043
20627.4 37.5043 -38362.7
124858 417.244 48148.4
417.244 -33798.5 106.996
48148.4 106.996 -45993.6
179729 798.884 106781
798.884 -56538.5 305.09
106781 305.09 -47803.8
252728 1681.3 241678
1681.3 -102442 966.712
241678 966.712 -13688.6
256794 3618.72 535939
3618.72 -201858 3572.93
535939 3572.93 214235
-206023 3914.36 584762
3914.36 -371339 11695.2
584762 11695.2 1.07257e+06
-206023 -3914.36 -584762
-3914.36 -371339 11695.2
-584762 11695.2 1.07257e+06
256794 -3618.72 -535939
-3618.72 -201858 3572.93
-535939 3572.93 214235
252728 -1681.3 -241678
-1681.3 -102442 966.712
-241678 966.712 -13688.6
179729 -798.884 -106781
-798.884 -56538.5 305.09
-106781 305.09 -47803.8
124858 -417.244 -48148.4
-417.244 -33798.5 106.996
-48148.4 106.996 -45993.6
88430.1 -236.445 -20627.4
-236.445 -21457.3 37.5043
-20627.4 37.5043 -38362.7
64076.9 -142.611 -6886.94
-142.611 -14251.8 10.5953
-6886.94 10.5953 -30822.3
47364.2 -90.2082 159.048
-90.2082 -9805.17 -0.212064
159.048 -0.212064 -24485.3
45437.1 8766.52 -482.033
8766.52 -8573.03 -64.9138
-482.033 -64.9138 -24103.3
60742 13712.1 6080.65
13712.1 -12025.8 944.84
6080.65 944.84 -30281.1
82299.2 22368.7 18629.6
22368.7 -17159.1 3421.07
18629.6 3421.07 -37633.4
112699 38444.3 42920.1
38444.3 -24746.6 9633.19
42920.1 9633.19 -45235.8
153412 70252.9 91540.8
70252.9 -35173.3 26416.1
91540.8 26416.1 -48499.7
192124 135131 190392
135131 -44383.4 76918.2
190392 76918.2 -27054.8
141705 242627 353619
242627 -24733.5 238103
353619 238103 100069
-177481 199285 293630
199285 79315 593132
293630 593132 445959
-177481 -199285 -293630
-199285 79315 593132
-293630 593132 445959
141705 -242627 -353619
-242627 -24733.5 238103
-353619 238103 100069
192124 -135131 -190392
-135131 -44383.4 76918.2
-190392 76918.2 -27054.8
153412 -70252.9 -91540.8
-70252.9 -35173.3 26416.1
-91540.8 26416.1 -48499.7
112699 -38444.3 -42920.1
-38444.3 -24746.6 9633.19
-42920.1 9633.19 -45235.8
82299.2 -22368.7 -18629.6
-22368.7 -17159.1 3421.07
-18629.6 3421.07 -37633.4
60742 -13712.1 -6080.65
-13712.1 -12025.8 944.84
-6080.65 944.84 -30281.1
45437.1 -8766.52 482.033
-8766.52 -8573.03 -64.9138
482.033 -64.9138 -24103.3
40314.5 15617 -1310.83
15617 -5389.09 -351.304
-1310.83 -351.304 -23024.5
52145.5 23722.9 4044.6
23722.9 -6480.46 1250.72
4044.6 1250.72 -28759.4
67215.2 37056.3 13761.8
37056.3 -7022.76 5029.31
13761.8 5029.31 -35570.9
84932.8 59507.8 30971.1
59507.8 -5183.33 13833.8
30971.1 13833.8 -42891.3
100462 97190 60449.8
97190 4620.47 34715.5
60449.8 34715.5 -48358
95253.6 154050 105273
154050 38006.3 84639.8
105273 84639.8 -44390.5
24734 200857 143588
200857 125504 192408
143588 192408 -14337.6
-111840 114512 83265
114512 253075 334725
83265 334725 39979.8
-111840 -114512 -83265
-114512 253075 334725
-83265 334725 39979.8
24734 -200857 -143588
-200857 125504 192408
-143588 192408 -14337.6
95253.6 -154050 -105273
-154050 38006.3 84639.8
-105273 84639.8 -44390.5
100462 -97190 -60449.8
-97190 4620.47 34715.5
-60449.8 34715.5 -48358
84932.8 -59507.8 -30971.1
-59507.8 -5183.33 13833.8
-30971.1 13833.8 -42891.3
67215.2 -37056.3 -13761.8
-37056.3 -7022.76 5029.31
-13761.8 5029.31 -35570.9
52145.5 -23722.9 -4044.6
-23722.9 -6480.46 1250.72
-4044.6 1250.72 -28759.4
40314.5 -15617 1310.83
-15617 -5389.09 -351.304
1310.83 -351.304 -23024.5
33381.3 19652.1 -2348.63
19652.1 -1331.31 -942.583
-2348.63 -942.583 -21388.8
41137.1 28617.9 1553.94
28617.9 114.796 719.593
1553.94 719.593 -26474.1
49407.5 42107 8147.04
42107 3865.66 4458.65
8147.04 4458.65 -32464.5
55995.8 61954.3 18541.3
61954.3 12746.8 12402.1
18541.3 12402.1 -39048.6
55277.1 88797.8 33234
88797.8 32557.5 28581.3
33234 28581.3 -45205.5
36217.2 116199 49116.8
116199 72884 59136.7
49116.8 59136.7 -48655.4
-11287.2 118102 53157.4
118102 139238 106669
53157.4 106669 -46591.6
-65377.3 54407 25137
54407 203749 151325
25137 151325 -41019.5
-65377.3 -54407 -25137
-54407 203749 151325
-25137 151325 -41019.5
-11287.2 -118102 -53157.4
-118102 139238 106669
-53157.4 106669 -46591.6
36217.2 -116199 -49116.8
-116199 72884 59136.7
-49116.8 59136.7 -48655.4
55277.1 -88797.8 -33234
-88797.8 32557.5 28581.3
-33234 28581.3 -45205.5
55995.8 -61954.3 -18541.3
-61954.3 12746.8 12402.1
-18541.3 12402.1 -39048.6
49407.5 -42107 -8147.04
-42107 3865.66 4458.65
-8147.04 4458.65 -32464.5
41137.1 -28617.9 -1553.94
-28617.9 114.796 719.593
-1553.94 719.593 -26474.1
33381.3 -19652.1 2348.63
-19652.1 -1331.31 -942.583
2348.63 -942.583 -21388.8
26111 20906.7 -3295.65
20906.7 2515.04 -1762.07
-3295.65 -1762.07 -19385.4
30383.2 28998.5 -687.728
28998.5 5780.84 -424.275
-687.728 -424.275 -23715.9
33664.4 39974.4 3402.17
39974.4 11962.4 2480.49
3402.17 2480.49 -28740.1
33860.2 53854.8 9142.24
53854.8 23344.2 8146.76
9142.24 8146.76 -34260.7
27427.4 68609.4 15912.9
68609.4 43248.6 18231.6
15912.9 18231.6 -39777.1
10398.1 77382.3 21218.4
77382.3 74514.9 34034.3
21218.4 34034.3 -44423
-16413 67048.4 20096
67048.4 113854 53723.3
20096 53723.3 -47300
-39530 27577.3 8591.27
27577.3 144453 68902
8591.27 68902 -48342.3
-39530 -27577.3 -8591.27
-27577.3 144453 68902
-8591.27 68902 -48342.3
-16413 -67048.4 -20096
-67048.4 113854 53723.3
-20096 53723.3 -47300
10398.1 -77382.3 -21218.4
-77382.3 74514.9 34034.3
-21218.4 34034.3 -44423
27427.4 -68609.4 -15912.9
-68609.4 43248.6 18231.6
-15912.9 18231.6 -39777.1
33860.2 -53854.8 -9142.24
-53854.8 23344.2 8146.76
-9142.24 8146.76 -34260.7
33664.4 -39974.4 -3402.17
-39974.4 11962.4 2480.49
-3402.17 2480.49 -28740.1
30383.2 -28998.5 687.728
-28998.5 5780.84 -424.275
687.728 -424.275 -23715.9
26111 -20906.7 3295.65
-20906.7 2515.04 -1762.07
3295.65 -1762.07 -19385.4
19542.1 20079.4 -3966.42
20079.4 5476.28 -2649.57
-3966.42 -2649.57 -17208.1
21391.2 26500 -2318.29
26500 9598.44 -1786.87
-2318.29 -1786.87 -20774.9
21804 34306.3 107.32
34306.3 16386.2 97.759
107.32 97.759 -24830.2
19406.6 42722.8 3203.46
42722.8 27172.9 3566.51
3203.46 3566.51 -29220.5
12581 49484.3 6394.09
49484.3 43223.5 9152.69
6394.09 9152.69 -33630.4
591.802 50181.1 8400.62
50181.1 64408.3 16834.8
8400.62 16834.8 -37576.9
-14187.6 39341.9 7529.85
39341.9 86893.7 25149.7
7529.85 25149.7 -40518.2
-25057.5 15185.6 3080.78
15185.6 102237 30869.4
3080.78 30869.4 -42062.1
-25057.5 -15185.6 -3080.78
-15185.6 102237 30869.4
-3080.78 30869.4 -42062.1
-14187.6 -39341.9 -7529.85
-39341.9 86893.7 25149.7
-7529.85 25149.7 -40518.2
591.802 -50181.1 -8400.62
-50181.1 64408.3 16834.8
-8400.62 16834.8 -37576.9
12581 -49484.3 -6394.09
-49484.3 43223.5 9152.69
-6394.09 9152.69 -33630.4
19406.6 -42722.8 -3203.46
-42722.8 27172.9 3566.51
-3203.46 3566.51 -29220.5
21804 -34306.3 -107.32
-34306.3 16386.2 97.759
-107.32 97.759 -24830.2
21391.2 -26500 2318.29
-26500 9598.44 -1786.87
2318.29 -1786.87 -20774.9
19542.1 -20079.4 3966.42
-20079.4 5476.28 -2649.57
3966.42 -2649.57 -17208.1
14155.9 18036.3 -4308.73
18036.3 7349.66 -3452.73
-4308.73 -3452.73 -15021.3
14568.3 22704.9 -3289.37
22704.9 11557.7 -3041.4
-3289.37 -3041.4 -17883.9
13661.7 27778.2 -1851.04
27778.2 17830.1 -2022.68
-1851.04 -2022.68 -21066.4
10710.1 32380.9 -118.973
32380.9 26766.1 -158.895
-118.973 -158.895 -24439.9
5168.79 34839.9 1559.69
34839.9 38576.4 2678.21
1559.69 2678.21 -27777.4
-2681.21 32773 2610.99
32773 52373.6 6276.83
2610.99 6276.83 -30757.9
-11004.4 24087.4 2459.59
24087.4 65466.6 9854.77
2459.59 9854.77 -33016.3
-16555.5 8948.44 1011.61
8948.44 73703.9 12159.6
1011.61 12159.6 -34235.7
-16555.5 -8948.44 -1011.61
-8948.44 73703.9 12159.6
-1011.61 12159.6 -34235.7
-11004.4 -24087.4 -2459.59
-24087.4 65466.6 9854.77
-2459.59 9854.77 -33016.3
-2681.21 -32773 -2610.99
-32773 52373.6 6276.83
-2610.99 6276.83 -30757.9
5168.79 -34839.9 -1559.69
-34839.9 38576.4 2678.21
-1559.69 2678.21 -27777.4
10710.1 -32380.9 118.973
-32380.9 26766.1 -158.895
118.973 -158.895 -24439.9
13661.7 -27778.2 1851.04
-27778.2 17830.1 -2022.68
1851.04 -2022.68 -21066.4
14568.3 -22704.9 3289.37
-22704.9 11557.7 -3041.4
3289.37 -3041.4 -17883.9
14155.9 -18036.3 4308.73
-18036.3 7349.66 -3452.73
4308.73 -3452.73 -15021.3
10017.6 15494.5 -4361.14
15494.5 8247.04 -4076.21
-4361.14 -4076.21 -12944.1
9699.04 18684.4 -3720.13
18684.4 12086.5 -4012.01
-3720.13 -4012.01 -15198
8363.31 21766.8 -2829.77
21766.8 17375 -3606.67
-2829.77 -3606.67 -17648
5691.19 24037.7 -1774.02
24037.7 24293.5 -2763.53
-1774.02 -2763.53 -20187.7
1603.8 24441 -733.13
24441 32656.6 -1468.36
-733.13 -1468.36 -22649.9
-3445.25 21785.2 44.1156
21785.2 41607 123.7
44.1156 123.7 -24814.7
-8288.77 15329.8 351.086
15329.8 49476.1 1640.74
351.086 1640.74 -26439.9
-11318.6 5556.27 184.369
5556.27 54171 2584.85
184.369 2584.85 -27314.4
-11318.6 -5556.27 -184.369
-5556.27 54171 2584.85
-184.369 2584.85 -27314.4
-8288.77 -15329.8 -351.086
-15329.8 49476.1 1640.74
-351.086 1640.74 -26439.9
-3445.25 -21785.2 -44.1156
-21785.2 41607 123.7
-44.1156 123.7 -24814.7
1603.8 -24441 733.13
-24441 32656.6 -1468.36
733.13 -1468.36 -22649.9
5691.19 -24037.7 1774.02
-24037.7 24293.5 -2763.53
1774.02 -2763.53 -20187.7
8363.31 -21766.8 2829.77
-21766.8 17375 -3606.67
2829.77 -3606.67 -17648
9699.04 -18684.4 3720.13
-18684.4 12086.5 -4012.01
3720.13 -4012.01 -15198
10017.6 -15494.5 4361.14
-15494.5 8247.04 -4076.21
4361.14 -4076.21 -12944.1
49348.7 92.8106 -13153.8
92.8106 -9469.92 -17.5384
-13153.8 -17.5384 -27252
69327.8 151.947 -11826.2
151.947 -14128.7 -18.1942
-11826.2 -18.1942 -36360.6
100653 263.896 -7314.02
263.896 -21992.3 -13.2982
-7314.02 -13.2982 -49337.2
153340 498.614 4326.55
498.614 -36257.2 9.61456
4326.55 9.61456 -68738.5
252224 1072.92 34442.6
1072.92 -65090.2 98.4076
34442.6 98.4076 -100343
473173 2877.72 127992
2877.72 -134736 511.969
127992 511.969 -158777
1.11875e+06 11738.8 576353
11738.8 -369073 3842.35
576353 3842.35 -257497
2.23987e+06 97897.7 4.89116e+06
97897.7 -1.89465e+06 97823.1
4.89116e+06 97823.1 2.18319e+06
2.23987e+06 -97897.7 -4.89116e+06
-97897.7 -1.89465e+06 97823.1
-4.89116e+06 97823.1 2.18319e+06
1.11875e+06 -11738.8 -576353
-11738.8 -369073 3842.35
-576353 3842.35 -257497
473173 -2877.72 -127992
-2877.72 -134736 511.969
-127992 511.969 -158777
252224 -1072.92 -34442.6
-1072.92 -65090.2 98.4076
-34442.6 98.4076 -100343
153340 -498.614 -4326.55
-498.614 -36257.2 9.61456
-4326.55 9.61456 -68738.5
100653 -263.896 7314.02
-263.896 -21992.3 -13.2982
7314.02 -13.2982 -49337.2
69327.8 -151.947 11826.2
-151.947 -14128.7 -18.1942
11826.2 -18.1942 -36360.6
49348.7 -92.8106 13153.8
-92.8106 -9469.92 -17.5384
13153.8 -17.5384 -27252
47247.9 9000.64 -13059.4
9000.64 -8204.63 -1758.66
-13059.4 -1758.66 -26738.2
65531.3 14565.2 -11871.6
14565.2 -11763.5 -1844.66
-11871.6 -1844.66 -35533.2
93240.2 24842.3 -7808.5
24842.3 -17216.5 -1433.92